   27000
 Properties=species:S:1:pos:R:3:forces:R:3:local_energy:R:1:hirshfeld_v:R:1 Lattice="52.5000000000       0.0000000000    0.0000000000    0.0000000000   52.5000000000    0.0000000000    0.0000000000    0.0000000000   52.5000000000" energy=-15574.511182 energy_soap=-274168.66629227  energy_2b=211889.48647081 energy_3b=-5745.27333996 energy_core_pot=56807.21628922 energy_vdw=0.00000000 energy_exp=0.00000000 energy_xps=0.00000000 virial="267881.21463625     382.73806315  -1490.48032981    382.73806315 267680.94823826  -2942.59517966  -1490.48032981  -2942.59517966 265938.16088464" stress="-1.85124692          -0.00264499      0.01030026     -0.00264499     -1.84986294      0.02033539      0.01030026      0.02033539     -1.83781906" volume=144703.125000
 C              0.30791210       0.86630122       0.36967393       2.78372393      -6.65216091      -1.62353507      -8.30533800       0.91502269
 C              1.24365896       1.34421137       1.03020971       0.53627609      -6.05946036       3.81780794      -5.79794572       0.91675916
 C              0.90142708       1.84683050       2.07176817      -0.72087450       0.85885689       6.85052468      -8.04412799       0.91633303
 C              1.56532065       3.43681353       2.68846551     -10.61537921      -6.94264105      11.56469992      -6.97287203       0.92250874
 C              2.51011433       0.98814379       2.72405502     -39.59822637    -173.86259806     -69.12411040       7.84336332       0.90328145
 C              2.68079030       1.75300580       3.05864512      45.20033224     159.04108432      68.99580646       8.00100080       0.90445401
 C              1.78812461       2.45720017       0.50026066     226.80546950    -253.11959891     396.45172356      65.83999439       0.91469887
 C              2.64114869       2.88424998       1.40433730      17.22574229     -18.14859517     -10.78804886     -10.53641805       0.92479494
 C              0.70200813       0.11614242       4.31169450       4.56428174       3.66977563      -2.03587739     -10.15235706       0.93227522
 C              1.51297748       1.82353352       4.41919139    -229.73290906     -88.00495657     357.84872562      37.36867335       0.91801207
 C              0.60111310       2.52315710       5.59230123      -0.77505403      -8.19430357       0.47270894     -10.79661219       0.91054356
 C              1.58235853       3.19041361       6.30030151     -32.16488971     -18.02654985       9.38813518      -4.65451351       0.92296702
 C              1.96611025       0.91043272       6.00744220      55.34975952      90.77430117     -16.63779858      -0.85556629       0.91528473
 C              2.92893861       1.79462194       6.74407471      -5.46398344      -3.73489501       3.35305000      -8.63073595       0.92432046
 C              1.84332801       1.94864562       3.88986803     220.36552226      82.50860822    -342.82812489      43.45983117       0.90407029
 C              3.01051028       3.18168018       5.31314061      79.60589572     -62.52364783     -85.25856949       1.39111204       0.92027954
 C              0.61290133       0.16197408       7.75354222       0.53992808       4.20142014       0.56463680      -9.01082270       0.93779483
 C              1.72169897       1.06851903       8.62389422    -113.95503908     214.01495734    -309.85227133      34.66525620       0.91328909
 C              0.83269597       2.54077004       9.18528685      -3.77157797      -6.77235518       3.67929410      -8.02133128       0.93196947
 C              1.31871413       2.86880381      10.47345494       2.48349556       5.44717835       0.17872635      -6.38643035       0.92581075
 C              1.90507910       0.68918564       9.13411538     115.49060523    -223.89669441     295.86625288      34.73345779       0.91771013
 C              2.89696068       1.46389966       9.96860758       5.16750083       4.94721426      -1.43776056     -12.70994161       0.93011760
 C              2.67088754       2.65616325       7.93706533     -25.18985794      -6.24921282     -41.62949556      -2.02795592       0.92455502
 C              3.22541455       2.67571113       8.83638011      26.43005611      -0.42070542      47.67850605      -3.76436162       0.92569436
 C              0.76536301       0.96307574      11.34920798     -29.39949809     -18.92134683     -27.34586029      -5.73314249       0.92817143
 C              1.49107146       1.32596622      12.07161628       3.11631704      32.08807966     -19.84989982       1.02713216       0.91919917
 C              0.57284547       2.73029756      12.47474595      -0.26628296      -6.64140183      12.50811811      -6.83194979       0.91764954
 C              0.90612819       3.21077266      13.82018103       3.90217357      -6.54379752       0.53245426      -7.79757202       0.91860758
 C              1.88557559       0.75750032      12.85706398      28.71404618     -33.86456088      45.86374967      -6.56501524       0.92122165
 C              3.00404514       1.04055734      13.91477159     -48.25132866      24.95399455     -11.25088995      -3.19004747       0.92914856
 C              2.34914578       2.18335572      11.48579828       0.86872763       1.30681870     -13.73024098      -8.54276732       0.92486298
 C              3.48570722       2.77415268      12.27561291     -12.14164222       9.44776566     -12.05687130      -6.04412919       0.93776235
 C              0.36504064       0.71945250      14.23602931     332.89180428    -393.28843379     142.84187919      57.49429308       0.94260158
 C              0.99618902       1.58749853      15.48996041       8.15505160      -8.95376648      -3.03520720      -9.07155285       0.94270932
 C              0.99503608       2.63199750      16.15431957      -0.10401834      13.83825354     -23.94175942      -2.70568011       0.92825705
 C              0.92119376       2.63088995      17.24281337      -8.85132384       3.09264512      37.01648904      -3.55031045       0.92940695
 C              2.63457886       0.90479634      15.89572381     -10.11285222      -7.84425718       1.41205283      -6.89085623       0.93178607
 C              3.23015233       1.51603617      17.35140461      -5.21482503      -5.74707665       1.07954812      -7.01182893       0.92019561
 C              2.23894358       2.69317185      14.06537733       6.47261066      -1.34077750       0.01716284      -6.15734627       0.92451904
 C              3.05642741       2.73855426      15.45039142      -7.48686426       3.81198428      -4.54641945      -7.75397601       0.93358285
 C              0.35112669       0.19837578      18.32837683      -5.75975676      -2.14576625      -5.36422869      -6.16177096       0.91972875
 C              1.30267872       0.93204643      18.54717951       5.15864897       0.56232363       8.97394410      -6.34019891       0.91965945
 C              0.33325015       1.97015523      19.49663229       4.98718478       3.06466418       3.00682208      -8.51154465       0.92734880
 C              1.21444563       3.60971712      20.33185947      -2.97478755     -12.80420248      12.38008490      -7.68733612       0.92009595
 C              2.72469913       0.07304849      19.70706249     -75.67413804      31.63975164     228.23531504      16.47568528       0.90491989
 C              2.92275346       1.44185724      21.03996539     -10.22315680      16.00167796     -18.49274617      -4.25994984       0.91579275
 C              2.44590166       2.18206996      18.36890664      -9.24532406     -22.71773824      -7.72307097      -5.87041342       0.92297923
 C              2.77219350       3.26005818      18.54563775     -12.85798423      15.09603180      13.38044026      -3.79829829       0.91612177
 C              0.87965670       0.14590825      21.81910022     -22.29358323      13.33477216      20.22299806      -0.02777011       0.91495489
 C              1.16506519       1.35800459      21.92815630       5.01098454      12.66901363      10.46766490      -7.54416950       0.92029996
 C              0.90951519       2.42986715      22.91601786      -4.59154706      -0.74826322      -1.80554923      -8.22141833       0.92311556
 C              1.51588705       2.84630697      24.17623171      -5.29465979       7.23602151      -2.32676026      -6.27969519       0.92692714
 C              2.25471011       0.73922607      22.87179674       2.75668292      -3.08241191       3.09438813     -10.15058527       0.92370403
 C              2.99652945       1.04165386      23.99416378      -3.71737443       7.53719840       1.27275917      -7.16755041       0.92106691
 C              2.50477344       2.55834903      21.10098269     -10.87889353       2.98884413      -5.79030749      -6.57227560       0.92010502
 C              3.15356606       3.22842647      21.92691487       2.96132639       3.64183984      10.35279805      -7.33942582       0.92523802
 C              0.69084054       0.15700674      25.30647365      -2.20702655       0.95112568      -5.61387377      -6.21914284       0.93691188
 C              1.18217134       1.78493581      26.32368790      12.02284425      -4.52959752      -6.58826183      -6.37809358       0.93907008
 C              0.14998804       2.34808246      26.70369739       0.01472274      18.05489368      -5.60374337      -3.92642614       0.92756058
 C              1.71844444       3.48453465      27.49851418      -0.96000572      -3.76962707       0.51895238      -5.89090910       0.92900157
 C              2.64019049       0.69057630      27.16405305       0.09011977      -2.71806677      -0.89701919      -6.75007098       0.92885598
 C              3.52642020       1.62185092      27.96626129      -1.96007271      -2.98621165      -5.28261560      -6.86951744       0.92747920
 C              1.82631302       1.85859068      24.99101590       1.37466444      -1.93292750       4.57788352      -6.83233604       0.92970788
 C              3.24698382       3.26333158      26.32217289      -2.26542859       5.40991110      -3.37057585      -9.00251150       0.93297749
 C              0.75255595       0.59079978      28.45649192       1.25903060       6.74786615     -15.17735582      -7.19655445       0.92087887
 C              1.36164344       1.22127137      29.85238304       2.45868145      -7.05198925      -0.77368730      -7.93754758       0.92747045
 C              0.63524429       1.84742404      30.61008819      64.49193074      73.77006372     -65.29437207      10.64235881       0.89937989
 C              1.12894621       2.83540571      30.80243412       5.71500799      27.23624955       5.98362172      -6.20285705       0.92529444
 C              2.27041183       0.31699879      29.84664664    -116.56278509      94.80522794      81.17786492      13.67087327       0.91683046
 C              3.13218499       1.21348475      30.69771714       5.72827162      -3.52254090       0.25883794      -8.68861365       0.93336457
 C              1.77383372       1.79766203      28.78093147      -2.10494440       4.46865132      -3.87795298      -6.17388153       0.92838719
 C              2.85612091       2.68106086      29.13674524      -1.99962967      -3.12589396       3.45354996      -6.48422528       0.93076674
 C              0.82756560       0.02480987      32.46595699      -0.38380208      -1.44541437       3.95585978      -7.56918418       0.92639242
 C              1.09990245       1.21161636      32.52803150       2.12296981      -0.07724398      -0.41227856      -6.51318283       0.91896980
 C              0.35210026       2.18780853      33.95080687       5.86264073      -1.58800127      -7.51336043      -9.05165323       0.91797183
 C              1.03472644       3.44869541      34.93533009      13.95597545      -8.51820716      -9.05115793      -6.87735919       0.92707170
 C              2.53207448       0.34086972      33.63378916       4.76903859       1.30262166      -2.95256447      -8.30135250       0.93022926
 C              3.53909707       1.85084758      34.43842624      -5.30253051      -4.47471672      12.37605651      -5.84571086       0.92161085
 C              2.73665635       2.50342075      32.47138684    -140.79115085    -292.01378994     -17.50367703      26.72375161       0.91073312
 C              3.03799454       3.13614387      32.50802685     151.48830343     304.36777235      20.24251448      27.27708720       0.92320013
 C              0.53911674       0.67217747      35.47901221       6.14884768      -7.07648646      10.31985271      -3.97768662       0.92355682
 C              1.60025221       1.28590563      36.21928457       3.06386764       8.42010609       6.05814705      -8.44115384       0.92292389
 C              0.71992614       2.09891514      37.15177298      -5.53324304       4.75295554       4.35857513      -7.26380162       0.91768596
 C              1.01347275       3.49438251      37.79633537      14.51108600      -1.92452469      -1.40033284      -9.42537371       0.92639405
 C              2.06469551       0.91622250      37.67173075     -27.73097351     -16.24122406     -36.44335623      -3.12804356       0.93108909
 C              2.80806765       1.10743640      38.43629268      27.77055208       3.83254276      27.60497043      -1.76830623       0.91969573
 C              2.57419427       2.57503522      35.83542595      -2.86940960       0.53083218      -5.67901735      -8.82137065       0.92378141
 C              3.00906994       3.61144555      36.79892015      79.03487415     -53.18991326    -129.90729417       5.31264285       0.91531864
 C              0.42659167       0.53624728      39.37500252     -21.25108408      -0.87517917      -6.38785617      -5.71231367       0.92132706
 C              1.43450003       1.07909519      39.41188527      13.68717775       9.92886427       7.20576513      -7.51967922       0.92196818
 C              0.19133578       2.42324745      40.26375318      25.39966010     -32.09226450      42.78736518      -5.74665083       0.92490457
 C              0.87660386       2.73270683      41.42304415       8.00503263       6.42208888       2.76277073      -9.16896369       0.91560787
 C              1.76430459       0.04301011      40.76645981      86.51928658     156.79940019    -220.89263101      20.55747752       0.90723782
 C              2.89652046       1.50258591      41.83132198       4.72188738       2.33798115      -1.58974788      -6.84100425       0.91484815
 C              2.59784215       2.20022640      39.00464507      -3.75613395      -0.14609210      -1.10158119      -5.80240408       0.91905644
 C              2.77026012       2.73603164      40.03270225       7.11522845      11.60870075       5.22157336      -6.40732686       0.92145290
 C              0.20684223       0.19148676      42.70795164      -1.56989692       4.37755845      -9.32259472      -4.67488468       0.91242220
 C              1.01579548       0.90983798      43.27013706      11.72367185       8.80515495       5.11599527      -7.54043901       0.91677058
 C              0.45302254       2.30658236      44.29434246       1.85979157      -5.50375943       2.86334775      -7.27812360       0.92863259
 C              1.49909404       3.40887704      45.55295216      -3.17032797      -5.98711292      -9.00616338      -7.84767055       0.91553902
 C              2.17655268       0.11435382      43.89854968       0.92880762       1.77075797       3.21988331      -8.29445172       0.91986279
 C              2.83234027       1.43120891      45.12143204      19.28297707     -34.75270186     -10.46486629      -4.11857078       0.91850847
 C              1.84173882       1.92494883      42.20992387      -8.90902265      -0.23572235       4.12742137      -5.45883227       0.92381944
 C              2.97767896       2.82939083      43.63193184       2.76888792       4.09762131      -4.29682097      -8.50528910       0.93054935
 C              0.85860668       0.12892240      45.70800461     -44.76417589      18.65934094      22.66434032      -5.03415104       0.92374460
 C              1.17687083       1.13299818      47.32740968       2.21965252      -4.18328406      -7.97340090      -6.79431132       0.92444496
 C              0.27174641       2.02950632      47.63416646       9.17183828       6.08435461      -3.79483609      -0.93508306       0.92587092
 C              1.09192256       2.96508254      48.25593296       2.87334060       8.05112348       3.02717232      -7.42223332       0.92230699
 C              2.70839528       0.03120222      47.91197007     -33.67786767      34.99433302      32.47825253      -3.98283764       0.93414974
 C              3.33886715       1.69577569      48.46717621      -4.61013437      -8.12433420      10.64938856      -7.81781847       0.92967382
 C              2.44214382       2.35273110      45.52741269     -22.76517599      34.93359921      20.18170903      -2.23240518       0.92341725
 C              3.26415205       2.93378722      46.63102117      -3.38058008       5.86282147      -0.95135672      -9.64636985       0.91661766
 C              0.84907499       0.64724154      49.34088173      -7.48897222       5.63668260      21.04538528      -4.71628849       0.92385614
 C              1.44708036       1.75114780      50.59035743      -7.48843742      -2.28075149       2.31984360      -6.09661845       0.91013319
 C              0.43429406       2.13065465      51.57467234      13.93450170       8.96957564      -1.85215505      -8.63677381       0.92312620
 C              1.55305511       2.71862600       0.08067214    -240.87416836     251.50718875    -423.98503510      60.75676533       0.90287692
 C              2.57204499       0.65522870      51.14924354     -11.12328776       7.70410668       7.02227590      -6.76488760       0.92963651
 C              3.17423948       1.32180587      52.16856798     -12.19242026      25.58129161     -11.40307034      -6.66808868       0.91044497
 C              2.40224450       1.79158294      49.88598772       8.76548045       4.29032444      -6.95302455      -5.54804529       0.93132068
 C              3.45880722       3.21540055      49.90195485     -63.83148390     -96.19482703     163.90062998      11.73620429       0.91033413
 C              0.37772635       3.71349126       0.48540546      15.60080876       5.63892140      -6.45088700      -9.04637428       0.91690871
 C              1.76166624       4.59759147       1.57205888     -18.00988712      35.24265383      -2.15836293      -7.32434563       0.92131041
 C              0.94658467       5.60292174       2.60806393     -41.21793072     -64.51964164     -55.33719399      -0.85169606       0.90960596
 C              1.39821225       6.31129136       3.13437472      41.07176603      65.55962078      40.83034264      -2.24683508       0.92206180
 C              2.42238541       3.80527722       1.99361040      22.50539882       9.03322833      21.90960889       1.72775654       0.90287210
 C              3.23903642       4.81750196       3.34383502       6.58888042      -5.41840859      -2.47144939      -7.91503141       0.91934969
 C              1.82830507       5.64664071       0.08084661     112.80278838    -193.63523402      43.78197761      16.09161439       0.90514715
 C              2.90412258       6.37397037       0.93877881     -11.87048279     -12.28064732       7.29608500      -5.78192960       0.92194552
 C              0.25633020       4.14911319       4.30928057       5.04750926       4.76736034      -3.47817435      -6.69284087       0.91686081
 C              1.49907534       5.32242119       4.69189753       1.67279572     -16.74302099     -10.82638535      -6.03554170       0.91889003
 C              0.89745258       5.93813121       5.41421364     -18.12251177       7.90120612      -0.76354927      -2.53281042       0.90513199
 C              1.25675999       6.22687284       6.46298592       3.77720881       6.13660458      16.10889171      -6.29958514       0.91705176
 C              2.48224380       3.64678279       5.91489337     -50.38729355      79.81581587      69.43512331       8.45034003       0.90194273
 C              2.95343648       4.44707940       7.01568087      -7.70259061       1.89049413      -6.30064272     -11.27747040       0.92896516
 C              2.66765127       5.62690697       4.14353326      -3.88996934      -6.67506121      -8.90336462      -5.38969062       0.91592279
 C              2.78177712       6.62330282       4.78856558      19.11856714      -8.38747177     -27.37464711      -1.87519489       0.91054389
 C              0.35384911       4.13296114       7.89979624      -6.19914391      -1.40871346      -8.22825513      -5.37027818       0.93256863
 C              1.05154101       4.97540178       8.59065314       5.36783757       2.16780948       4.57282529      -5.76123626       0.93194155
 C              0.25584367       5.51712556       9.70505195       3.20178265       7.41315371     -19.46333618      -4.84004469       0.92797643
 C              1.72653084       7.05728582       9.68162441     -10.74099392     -12.79439663      -2.91882762      -5.47819751       0.92960119
 C              2.26300881       3.88307268       8.75151007      -0.45860345       2.65653875       3.62647008      -7.67447657       0.93669003
 C              2.99453222       5.05938038      10.59291985       7.74385975      -2.43308095     -12.47841520      -8.64951229       0.94483138
 C              2.49305500       5.88799304       7.11214884      -1.58634690      -2.29472422       2.46470066      -7.51056479       0.91230631
 C              3.11102875       6.17506314       8.42285831       1.00257497       5.77602819       1.14825449      -7.47643020       0.92734640
 C              0.44392358       4.40170682      11.26328025       6.08360008      -1.19404724      -1.87169226     -11.42280161       0.92942813
 C              1.86195472       4.83803150      11.57987852     -49.40879422    -312.67231349     206.70773769      36.92675524       0.90684214
 C              0.12936685       5.81270017      12.41140000      -9.63899819    -125.45194847     128.06504642       9.37936566       0.90419316
 C              1.73995891       6.19220213      13.99942686     -69.20237217       4.99009152     -68.09853708       0.60545766       0.90174416
 C              2.40625887       3.93221050      12.31211404      11.46735938       1.37642684      13.93375978      -9.07807162       0.93504398
 C              3.61490251       4.59925554      13.21936200      -6.12887020       1.92660718      -9.91962826      -8.95216380       0.91337928
 C              1.94632056       5.38687520      11.22444094      47.10344644     308.94906115    -198.11785147      34.71411743       0.90486227
 C              3.29468943       6.81663220      11.45562157       3.11370710       2.52729181       1.56788259      -7.12012514       0.92142261
 C              0.19084570       4.30221156      14.40335608      11.20640565      -9.97559351       8.65055747      -7.24619960       0.92362183
 C              1.77086139       4.51689877      15.72065458     -82.58311992     248.17697239    -129.77421974      21.39456843       0.89753058
 C              0.42792267       5.65627582      16.28013789       5.55976556       5.80309855       4.45424482     -11.04685820       0.92762027
 C              1.53669368       6.69434985      17.34735121    -125.66204411      70.85379754    -108.90009891      32.08957251       0.89717681
 C              1.97575531       3.87988369      16.05207221      82.76763360    -244.18487148     130.21322987      20.75073748       0.92810636
 C              3.60269027       4.43527796      17.09454906       1.51784811       0.30431581       2.51703021      -9.61500976       0.91760106
 C              2.45132801       6.08404460      14.62789955      80.32401069     -24.96246664      66.63272895       1.21326912       0.90368092
 C              3.28798548       7.02254104      15.34450027      -2.86691015      -5.26885173      -5.90578611      -9.91185927       0.92732575
 C              0.40764772       4.03534354      18.03954156       2.79195391      -5.43425081      -7.99181982     -10.97296738       0.91671241
 C              1.62347125       4.63220778      18.77917479      -8.67571647       5.98105037     -19.67524833      -5.14350698       0.92280935
 C              0.52932819       6.10085864      19.83806455       5.01844336      -5.70912334       7.86050749      -6.67569868       0.91285752
 C              1.87204092       7.09306232      20.25163093      -6.52477729     -11.09116517      -0.06509475      -3.72318820       0.93718030
 C              2.05195141       4.30185688      19.77650190      14.12144130      -2.67801641      10.17280782      -3.38194446       0.91387933
 C              3.22712158       5.19356852      20.54320179       6.01554289     -12.65645915     -13.99994179      -6.38563877       0.92691163
 C              2.11812096       6.23954229      17.52000130     182.45215997    -155.00163932      52.17444059      15.66171047       0.92020112
 C              2.73248264       6.49518762      19.30678516       5.79755495      -0.66896047      -4.65427592      -7.97176906       0.92891238
 C              0.38720713       4.46740022      21.65132743     -12.26370889     -34.99939964      -9.02224871      -7.09914591       0.92358313
 C              0.96253335       5.29759476      22.10527634      37.05701732      -5.28248577      -7.56928972       0.24764286       0.91780513
 C              0.67192793       6.01062124      22.86085404     -12.24654085      15.05908556      31.15224748      -5.62741184       0.92324003
 C              1.50724935       6.37117097      23.91805994      -4.44644822      -1.18656861       4.39546835      -8.40645073       0.92669341
 C              2.56604363       4.10456791      23.08260132      -4.02257505      -2.79853764       1.16073028      -5.89516746       0.93276053
 C              3.47872355       5.29721050      24.09963150       3.17801840      -9.83249273      -0.46153168      -6.29864396       0.93795949
 C              2.59532253       5.76245671      21.32778024     -13.76171425       6.78187479      14.64006595      -4.36668584       0.91972012
 C              2.78537545       6.43198546      22.45191819       9.07591078       3.63375758      -2.56922015      -8.71993894       0.93529917
 C              0.19366743       3.89302124      24.78111174       6.58939435       2.45765339      -0.26314955      -7.10951216       0.91719777
 C              1.07392566       5.18778843      26.33515524       7.05006790     -18.67813551     -20.90825350      -5.12695246       0.93077906
 C              0.79698709       5.97714145      27.04316834     -87.96310993     -37.70233945     -23.12137054       8.81471344       0.91021121
 C              1.54686867       6.46586287      27.38133451      90.40289183      53.02107362      45.56514398      -2.09153752       0.91810449
 C              1.95376490       4.26302145      26.53222262       5.63086935      -5.70206482      -2.36313408      -5.77725114       0.92384646
 C              3.50722910       4.62380208      27.92076568     -50.64203574      45.42885743     -15.54847814      -3.53231670       0.93132937
 C              2.22147922       5.33373228      24.87705877      -2.90087497       6.85025914      -2.57811288      -6.32548897       0.92582630
 C              2.99576840       6.29422113      25.44250067       8.88019825       6.37537331      -0.72818075      -5.47450214       0.92841284
 C              0.14671191       3.95525149      28.72369833       6.50263522     -20.01606552      24.58625826      -5.20971031       0.92380619
 C              1.85880621       4.67280715      29.48290144      -5.73751310       6.92049389       1.31098086      -7.35803445       0.92495168
 C              0.53331996       5.30915038      30.23527292       0.83882452       0.30510744      -8.55629368      -5.70377843       0.92604551
 C              1.07286836       6.75041462      31.44178791      80.31834064    -303.96790224    -167.78870223      34.45986359       0.93031148
 C              2.07650247       3.59854153      30.26087174       3.33580448       0.04420316      -1.00040780      -6.53555677       0.92119490
 C              3.59933137       5.12650676      31.33709833     -48.59123753      36.32377495     -19.63422558       5.96333428       0.91095584
 C              2.24679453       5.92272639      28.72858553      -2.95290130      -3.90529269      -4.02000912      -7.84817149       0.91432537
 C              3.06973283       6.60036523      29.37499143       2.97821923       3.86498432       3.28985679      -7.64534271       0.91588854
 C              0.70560341       4.29847125      31.95784819      -1.66755344      -4.99557269      -4.15020261      -6.58053383       0.92582286
 C              1.40387770       5.26568630      32.46718599       3.03153717      -7.52742902      -1.72304189      -5.55723384       0.91918108
 C              0.64900856       5.67004202      33.31549206      -6.17080542       4.82508367      15.53837007      -6.05679823       0.92028945
 C              1.02662550       7.10529765      34.98530357      76.88398971       2.14041713     -41.92028239      -2.16222886       0.92111932
 C              1.89286201       4.12067207      34.09632385      -1.23511859       0.20935587       1.08442342      -6.96326466       0.91756607
 C              3.06793954       4.62594827      34.41502784       5.07699291       3.03679509      -2.68765195      -7.87094795       0.92162646
 C              2.40505961       6.11171760      31.60603903      -5.96901792      -2.49776964       7.27074929     -14.98786280       0.93672833
 C              3.39246255       6.30313072      32.83165657     -20.44405125     103.79230009     -82.71683714       4.48589043       0.91159434