   27000
 Properties=species:S:1:pos:R:3:forces:R:3:local_energy:R:1:hirshfeld_v:R:1 Lattice="71.0703251121       0.0000000000    0.0000000000    0.0000000000   71.0703251121    0.0000000000    0.0000000000    0.0000000000   71.0703251121" energy=-179737.489254 energy_soap=-271769.32386617  energy_2b=100109.26684377 energy_3b=-3138.30458328 energy_core_pot=-581.85333787 energy_vdw=0.00000000 energy_estat=0.00000000 energy_exp=0.00000000 energy_xps=0.00000000 virial="-16331.19890739     -84.42176212     69.73536200    -84.42176212 -17316.13961286     48.44512704     69.73536200     48.44512704 -17992.44997512" stress="0.04549390            0.00023517     -0.00019426      0.00023517      0.04823765     -0.00013495     -0.00019426     -0.00013495      0.05012165" volume=358975.580435
 C             66.56459635      63.16400683      63.37332837       0.31842819       1.16033547      -0.17736991      -5.77311989       0.94530303
 C             26.40682908      64.34370756      71.05794678      -1.59552173       1.19331247       4.48422451      -6.23983002       0.94584885
 C              0.40240982      10.88158726       9.85200414       2.95210561      -2.19968149       0.23474991      -6.77609454       0.87912309
 C              3.85341340      11.11538295       5.06377387       5.29674054      -4.61067713      -1.64995477      -5.95471669       0.93744890
 C             68.90433653      59.47147176       8.62701775      -0.28804565      -0.46156103      -0.14468266      -6.48020290       0.92263274
 C             12.23634709      48.96196482       1.10964413       3.37177598       1.66019774       4.43993068      -5.77477067       0.92956538
 C             64.13728791      11.54181912      57.78319057      -3.27097970      -2.33499299      -2.05436397      -6.73792613       0.91902346
 C              5.55699301       6.07908687      63.76188011      -1.98713565       4.38019757      -0.76497124      -6.41060637       0.89602602
 C              3.18558104      56.47355316      62.91102716       2.49126883      -3.03491155      -0.03388806      -6.41510279       0.91282647
 C             70.83147625      15.76879828       6.64712445       0.60052579      -4.07046157      -0.37611200      -6.03071564       0.92653210
 C              2.92996170      65.89429114       2.15725378       3.04020636       1.43140309      -0.49619821      -6.21090143       0.94062401
 C              7.22335771      62.61231979      11.11756534      -0.80242421       0.03672587      -0.84775685      -6.68382011       0.91985470
 C              7.48049713      66.03771555       0.08521430       1.16183908      -1.49333874       2.61113610      -6.57979212       0.92946978
 C              4.58059497      61.60332451      11.95023432       3.41709767       2.85299873      -0.52229004      -7.95191602       0.88721801
 C              8.33209660       3.13458210       4.34206667      -0.74337100       1.42856824       6.19370990      -7.59211683       0.91993130
 C             59.73536709      20.36813580       9.68641075       2.18905350      -1.23475914      -0.69713967      -7.63426897       0.91263677
 C              6.53779807      67.89916619       9.85087170       0.24004310       0.19482751      -3.91645911      -6.23884567       0.93898071
 C             14.84434873      70.94999065      29.88527059       0.78354637      -0.58600035       6.63874941      -5.35047624       0.91522895
 C              9.68780196      18.48428512      25.88305419       4.08724819      -0.78480972      -2.79805342      -6.62861746       0.86693155
 C             67.42375930       4.94470626      21.06520409       2.56564497       1.20156156      -3.10998631      -8.52575526       0.91355922
 C              5.95815880      12.74370492      24.67878672       0.12250716      -0.71339746       3.47114657      -7.36821766       0.91528370
 C              8.46155497      11.96098863      11.84125500      -2.55330870      -1.44576931      -2.65094441      -5.61560329       0.93469411
 C              7.88863634       5.69772522      23.24274015      -1.33348984      -0.05239847       0.85369563      -7.43376483       0.92770078
 C             12.28299208      65.19611044      17.41882451       9.93812924      -4.38722516       2.19331834      -7.11151041       0.88794799
 C             64.47621472       1.16797395       4.14847469       0.74197396      -2.15445046       3.11626520      -6.93162696       0.90172030
 C              7.19361603       0.48583092      14.03784720      -2.27800078      -2.31500814      -2.37098487      -6.71894949       0.90650834
 C             10.74563378      70.66280700      11.68414173       4.96656667       7.92954415       5.08205264      -5.59187508       0.88726892
 C              6.45895948       2.55492255      15.32071742       0.88320886       7.11675304      -1.26263903      -8.30509783       0.91064921
 C             20.36244447      14.13146508       8.67886289      -1.58985434       3.23628607       1.38361096      -6.07497768       0.92495392
 C             11.38620647      69.96983183      25.09001970       2.08412594      -2.93900687       5.34034817      -6.61264424       0.90989888
 C              4.51417115      68.39988499       6.30802488       0.24781154       2.21194274      -3.49315708      -4.80465846       0.94090633
 C             68.40493515       4.92651828      31.97368839       1.99609259      -8.91689353       1.84545971      -7.01623800       0.89797038
 C              3.31453189       0.09388194      22.11820724       1.11530020      -4.46517526      -2.81948969      -6.43115569       0.91865875
 C              9.91173209      70.32735174      29.86745896       6.53089477       1.32532532       6.80894650      -7.76421868       0.90922832
 C              7.76148570      12.31372645      18.59913880      -0.47634069       1.66397049       2.90740173      -6.01981974       0.91864319
 C              9.54209920       1.69331716      32.50203404      -0.56398744       2.93609902      -2.52562477      -6.97910217       0.93599707
 C              3.78042507       4.13735624      28.16119486       3.77024271      -3.69865015      -4.39126482      -6.74117626       0.93727040
 C             69.56975074       9.34734031      40.24287618       3.10018251       0.47754444      -2.38277339      -6.29073926       0.92009402
 C              1.31453076       5.85641094      32.21067989      -0.90882627      -2.68192323       3.06193331      -6.56691573       0.91959408
 C              5.26494708       1.68971503      39.34227031       1.09888924      -1.89586374       2.21123160      -7.16853389       0.90734743
 C             16.49081816       0.95449139      17.76668641       3.79151404      -5.66693011       2.31406468      -7.19211910       0.89725052
 C              5.28894333      68.45801365      38.52691281      -2.91846638       2.03632143       4.10277887      -7.03077270       0.90416608
 C              8.48511709       2.15776596      30.73374239      -0.03523079       1.21187231       4.32635121      -6.17894661       0.92091925
 C             70.89419552      68.04417349      17.96893730       3.38685990       0.67859275      -2.24981535      -6.08823939       0.92156471
 C             13.03376440      65.38596687      39.76489683       0.34407124       0.87870155       0.54559677      -6.60214100       0.89993675
 C              3.90664754      65.76660325      41.80978867       2.87230992       0.72370659      -4.22853656      -6.32654254       0.93972402
 C             63.87475802      16.57227327      27.71766497       1.46630832      -1.54280037       0.53253754      -5.46440342       0.94130852
 C              8.38274101       2.81832585      29.56784187      -0.81243182       5.52455642      -1.90474227      -7.72549758       0.93839865
 C              4.17996640      66.64134403      25.84638935       6.75455078       7.00218397      -0.39981043      -5.76637587       0.93076837
 C             10.24168396       9.81069795      40.35285874       2.70167292       1.88539258      -2.00718339      -6.54765665       0.91895640
 C             61.49445210       5.27910448      41.81928530      -1.01188772      -1.30678607       0.04329086      -6.92440361       0.93212513
 C             62.53714612       5.82208773      40.92890006       0.26656536       3.51869185       2.37593340      -7.44095087       0.92923640
 C             20.86787356       8.15384438      25.62842495       3.31020666       1.27984253       1.92724105      -6.60230322       0.90151062
 C              0.63570531       9.31735210      43.68147479       0.68995943       2.41359796      -4.76871725      -6.36298854       0.92695070
 C             12.79553384       5.85877037      24.23621414       2.44315806      -3.33095509      -0.67476239      -6.47303238       0.95354192
 C              2.31567378      61.71805519      30.26943838       2.32343818      -1.40095685       2.26009207      -8.26873749       0.91336268
 C              4.10813445       1.76064268      33.75942987      -2.49354178       1.65167481       0.84147602      -8.19346189       0.89371598
 C             61.66980693      58.99463368      49.57670913      -1.46540432      -1.19148643      -2.08970270      -6.33756356       0.92758654
 C              0.61191889       9.94140083      30.47119947      -5.94945960       0.82372204      -0.17136105      -6.09102864       0.92713030
 C             69.04491904       9.98714176      41.20840191      -1.21409952      -0.61110963       2.13656291      -6.43382125       0.93101858
 C             64.88992640      67.80544210      35.14774329      -3.47916217       2.01669369       2.15326475      -6.93634546       0.90612229
 C             59.50882971       7.93336257      33.22599490      -1.51951263      -4.75514710       0.41840643      -7.52915445       0.90259561
 C             63.44200280       2.38390792      39.73346987      -2.65793690       5.60823222       4.44758993      -6.48410063       0.91619841
 C              5.05749448      14.51779590       8.67735479      -4.80069315       0.78786940       2.83224272      -5.71557106       0.92783158
 C             64.46382421      65.89162124      45.80164322       0.31317476      -2.41574513       0.48771372      -6.20118576       0.92997041
 C             65.19666151       4.49978813      40.53857250      -0.43526252       1.91022561       0.82833531      -6.95299797       0.93154076
 C              8.23749710       6.35180986      35.41797093       0.22904139       3.95983145      -1.54257059      -6.17578749       0.91419149
 C             65.40234888      11.93247728      53.87370003      -4.82772101       2.46807290      -3.67901328      -7.05177089       0.89125253
 C              4.06502793      69.92275763      29.97009404       5.01508084      -1.16758213      -1.03341997      -7.21345954       0.91027339
 C             66.57272872       4.23147768      57.29615415      -0.06465328      -3.43855176      -0.90027677      -5.40473193       0.93222784
 C             23.38338187      22.92123466      39.68310220       8.73051233      -1.62297828       0.52617636      -6.80900114       0.91445655
 C              9.07214534      67.96884002      35.34832613      -2.30796923      -2.32372506      -4.59085193      -6.36702973       0.88170992
 C             59.61243174       2.80740430      53.30494377       0.76347376       0.52121426      -0.47577026      -7.65367171       0.91150489
 C              1.59930928       7.37585333      37.46944928       1.68255331      -3.92355053       1.94729929      -6.46810782       0.91585532
 C             69.19323354       3.53711439      44.45187144      -5.37828942      -2.39258921      -0.96380141      -5.92858680       0.92521514
 C             54.46518884       8.45791819      43.62068958       1.64170395      -1.73861244       2.11748389      -7.27989402       0.89690107
 C             69.42282580      66.44460048      41.02530637       1.50429663      -5.96464491       1.78980896      -7.67704400       0.88824011
 C             61.47954346      64.31904757      64.51394313       2.61219128      -0.70142187       2.70524208      -6.92265591       0.95121967
 C             61.81084397      11.31638344      35.75278952      -4.22281953       8.69853851       0.85818016      -7.68989305       0.86985187
 C              4.19930524      19.79538639      39.83095949      -2.72511849      -1.48103642      -0.59983676      -7.09011163       0.89779141
 C             69.03461391      68.06080798      50.72684262       4.62041148      -0.23599124      -1.74022049      -6.52920720       0.93214563
 C             63.27328508      21.72440480      46.19058989       1.55799472       4.05467514       2.42560454      -5.56135175       0.92628558
 C             59.98817127       7.84776629      50.38823889       1.78137781       1.64642604      -1.42021701      -5.57664476       0.93456455
 C             58.74872773       4.20097561      42.22003378      -2.36161260       1.20485616       2.55667355      -6.94266135       0.94261275
 C             70.54419473      11.85698062      54.66484191      -3.20227144      -2.06172849       1.97203011      -5.92490679       0.91341393
 C              1.79458462       1.63120884      53.31603383      -3.45204538       2.19623845      -0.33122765      -8.45353908       0.89444612
 C             65.45045183       5.27413392      35.90263029      -1.99418063       0.69469461       4.35684947      -6.02657595       0.90537491
 C             16.18366859      62.19069613      46.65192368      -3.09838645      -1.64604987       3.21996241      -6.33421373       0.91911754
 C             68.91563905      56.41441615      67.73968932      -2.43143478       2.10539474       3.50184950      -6.03086504       0.93033199
 C             59.38166027      14.41019218      46.96477114       1.44114315      -2.92307404       1.29152058      -6.43281558       0.88694018
 C             61.81695439      69.25565088      58.93809640      -2.73343307       3.94753806      -1.97427853      -6.37105491       0.93242532
 C             69.50968462      18.36010657      46.29101172      -0.28811747       2.56340606      -0.87472208      -5.30617566       0.92215812
 C              9.05416313       8.96690759      48.37292609       1.18894275       2.93271646      -0.15673133      -7.08736751       0.94160321
 C              1.16330542       0.22475112      49.66680062       2.53260629       2.45769289       0.40528559      -6.48479079       0.92609159
 C             20.40934641      64.11397213      44.96290412      -0.03267823       0.32497792       0.27519457      -7.24253013       0.92092942
 C              8.64128288       0.94106445      53.39701140       0.69257138      -1.16833833       0.98645079      -7.26599256       0.90836324
 C             68.28309472      70.14352343      61.73425013      -2.73261633      -2.32360772       1.65769119      -7.20539846       0.89457922
 C             69.86150323       0.47607533      65.57627077       0.23455260       4.42845109       1.48301645      -4.45081413       0.90467994
 C              2.94730465      10.57753695      45.70471768       5.12928181       1.27776046      -3.20669811      -6.65321017       0.90749356
 C             64.21024281       5.12201785      67.86629968      -1.58362368      -2.19886442       1.93695695      -5.53928244       0.91871301
 C              0.90703823       1.79819907      64.81707514      -5.63631682       0.89648671       3.06218897      -6.72147272       0.88640669
 C              2.30893619       0.84961595      58.65040049      -4.14118939      -2.49870072       0.18456012      -7.20998280       0.88182551
 C             70.02553573       8.61829258       0.79687569      -1.49913092      -2.34934041      -2.46623235      -7.10068258       0.89419693
 C              0.82657799      68.30592234      53.22455613       3.81219823      -1.97409677      -2.73443779      -7.81986641       0.91545886
 C              0.46208636       1.15768418      52.88376162      -1.98354536      -3.98542469       3.19401646      -7.75822534       0.90754882
 C             59.47466127       4.52987164       2.73562069       0.56740543       2.25849913       1.76023947      -7.84070627       0.88522401
 C             63.51351248      31.94932737      68.04568241       1.10610166       0.92708409      -1.99313254      -6.04464076       0.90931601
 C              0.25864604       6.96504951      53.78974074       1.92473778       2.46114377       2.22488305      -7.09414645       0.92229195
 C              5.15953114      59.03259912      67.62567458      -0.75175929       0.20196956       1.30707294      -6.54719855       0.90792073
 C             65.30908802      65.34503030      65.58270118      -4.07737056      -3.06507285      -4.33303313      -5.99599883       0.88291531
 C             66.43285710      68.31411476      15.48018355      -0.97849904      -3.26175081       2.13363652      -8.34119793       0.92486884
 C             64.02723158      65.77432925      52.72767106      -4.29075706       2.35201075      -2.03470823      -6.39517791       0.93483419
 C             62.05344239      58.19662401      65.80619836      -0.48880191      -1.04375945       0.77596788      -7.21776822       0.94509132
 C             63.44162696      65.24956053      63.92697935       0.26829372      -4.66151994       2.08564664      -7.92862446       0.90827051
 C             59.33145631      16.69452912       8.58530186      -0.40675495      -1.43073941      -0.97428244      -5.99683305       0.91748899
 C              9.70049356      12.67159868       2.48545447       5.47290875       3.60813073      -0.19208229      -6.74261358       0.91286928
 C             19.31606355      62.08940700      17.20220143      -1.22249044       0.44807901      -1.77173649      -7.42973195       0.92628500
 C              7.13837891       3.56697650       7.76468472      -1.87293890      -3.18931861      -1.68306011      -6.07063196       0.89546184
 C              6.12819059      70.54811467      60.73694914       0.40548152      -0.21254854       1.09578115      -8.07465370       0.92248057
 C             70.92364782       6.09648488      65.43708042       0.61590391      -5.55586670      -2.10403198      -7.30021379       0.91478454
 C             61.38754284       5.53373501       1.24348016       4.96877945      -7.23397805      -2.44610714      -6.56629120       0.89036188
 C             70.88389668      68.42939569      67.22411089       1.85588274       4.81240906       2.12626899      -5.58346733       0.92699542
 C              1.48754309      18.59906218      15.15103768       3.46717426       0.96965794       1.07661237      -7.03107865       0.92986862
 C              3.24599814       6.01666171      18.02419241      -1.83546056       4.02130327      -1.52540449      -5.02334657       0.94931054
 C              1.78907774      69.81151812       5.61340321      -0.01909082       1.88089795      -3.54261581      -5.50598370       0.94849709
 C              9.84399024      65.10866767       3.59949174      -0.30983185       5.59564405      -2.03472680      -7.65741583       0.92060534
 C             67.47193722       4.23841455      65.55822593      -1.73195763       1.33029185       1.65526122      -6.80819955       0.90133787
 C              1.65119605      10.23296592      64.07216737       2.01306472      -0.17742798       1.79677034      -6.99817527       0.92476539
 C              5.68166430      57.44691241      10.22779436      -0.05045253       2.05963535       2.91785052      -7.40040749       0.89103593
 C             69.64286921      65.00730749       8.61357303       5.31972807      -0.34729729      -1.02377778      -7.89808704       0.91595509
 C              2.40495085      20.39011783      23.43631962      -5.77584072      -5.87098368      -0.47199051      -5.72186414       0.92207854
 C              0.46805587      17.93941831      11.04792398      -1.73077431      -0.38790333      -4.39793940      -7.54244747       0.91917442
 C              4.04589261       2.29517971      66.47472149      -1.16394089      -0.76993369      -6.11357850      -6.92493458       0.89185702
 C              4.33059430       3.88054734      64.17628273      -2.93265081      -1.42594189      -0.03101259      -6.20587746       0.90377507
 C             13.55148209      70.50141367       6.97779530      -5.97244827       0.14770322       4.00583908      -6.63647055       0.90868305
 C             13.85297862      19.55485061      31.13709211      -5.10012635      -0.15726409      -7.12921343      -5.87086484       0.91971116
 C              9.37244795      66.32642174      11.42634053       3.37127685       1.84254672       7.01037135      -7.54138826       0.90893849
 C              5.10836919      13.26960624       0.97048681      -0.84887251       0.24722260       1.78862369      -6.27161758       0.93407804
 C             53.18636187      19.54300163       9.85057923      -2.42942753      -0.62006332       0.20609647      -5.75591513       0.90740419
 C              1.66309739      11.65615943      11.86132696       2.21271109       1.19696838       5.62961523      -5.49415882       0.91474645
 C              9.70788235       8.21294283      14.07003164      -3.32957340       0.79662963      -2.55998809      -7.49181406       0.87809467
 C             69.02277027       1.93360063      18.35687498      -2.30334384      -0.24817478      -1.26334154      -8.11219359       0.89991303
 C              1.58012911      71.03496043      69.55865212       1.17196724      -1.99600622      -1.14925600      -7.98454668       0.87066577
 C              2.49148534      67.75256456      21.39449231      -1.67401977       5.34070246      -4.53903940      -6.27799258       0.91095104
 C             60.08489483      62.44586983      69.21558127       0.79697263       0.40060669       0.93284681      -6.43667718       0.92264530
 C              2.21911767      10.17835070      17.55271555      -3.52102744       4.23107771      -1.11830083      -7.38449453       0.93021150
 C             66.17572891       5.74829542       2.67450513       1.61932362      -6.39641492       1.54961813      -7.10945673       0.92482579
 C             68.98812853      21.33119626      24.26032231      -0.65833978       1.08277890       2.31943984      -5.91503984       0.92058308
 C             69.44433341      17.25822732      27.11570924      -3.08106927       1.88111534       2.66089436      -7.47004816       0.88767140
 C             68.66670111      18.33649445      20.95520109       1.55978138      -1.94482130      -1.54819173      -6.85076023       0.89797426
 C             70.31953736       5.28986363       9.28378353       7.77479354      -3.82058207      -4.44964205      -7.81873405       0.89152453
 C             11.56599007      14.64270213      13.11670168       0.97502351      -2.03406845       0.50592621      -9.13561997       0.93033362
 C             11.97619256      12.45606178      17.78120399      -2.09554581       1.19682895       1.61282580      -6.86520252       0.90667120
 C             65.32525053      14.02557475      26.66770075       0.59306299       0.55073336      -2.58075025      -7.29806083       0.90397350
 C              0.56023104      20.06688828      25.22865083       0.69674649       2.09588759      -0.43832832      -4.91832018       0.92288025
 C              4.21047147      14.94629686      17.65692466      -0.23632261      -1.36662203       3.61470259      -7.13206074       0.89393667
 C              1.68730087       7.97047530      30.37137836       3.71387571       3.23328260       1.96338194      -6.39829582       0.91359468
 C              5.20226561       2.80958398      23.71440630      -8.73575246       3.02028475      -3.47488149      -7.49595870       0.89207592
 C              2.72647253      13.30608121      24.24987976       3.41035413       0.31170944       0.94052584      -5.41550303       0.91862157
 C              2.62820150       6.14902331      20.64348689       3.54015103      -2.38541599      -2.19157762      -6.97956625       0.92571858
 C              8.79158827      15.47383488      19.65900094      -0.23009547       0.65801953       3.87219111      -7.58078069       0.92935591
 C              0.12432752       3.98552014      28.42792802      -0.30846752       6.18979162       0.39202759      -7.93547578       0.90616503
 C             61.00399305       7.95850810      39.51751536       4.84795540      -3.94817895       1.93559197      -7.04801122       0.92024561
 C             14.60788245       8.93934437      27.02485498      -2.47566872       0.35699942      -4.51601146      -7.65209227       0.89766034
 C             56.58545970      10.01103694      34.74735686       1.81015257      -1.85705063      -1.91966844      -6.91603718       0.92030818
 C             59.08460315      14.84998300      28.08744514       3.70212343      -2.91446570      -3.01610993      -6.49706489       0.92367522
 C             67.52194497       1.50092624      35.92861480      -1.23252999      -3.99546009       0.58748684      -6.15271187       0.92686599
 C              0.48272058       0.79573490      32.77326108      -0.72255812      -2.24936715      -0.33929528      -7.47927327       0.88436627
 C             58.64580140       5.82897681      35.82108263       3.94646681       3.87992406       0.62677674      -7.24984853       0.90066699
 C              7.24440250      17.34454242      34.70925391      -0.52928413       0.59300114       0.10359471      -5.85672489       0.91481406
 C              4.42127709       0.47072380      38.55525058       2.22069031      -1.55191251      -0.73080689      -7.60042791       0.90728685
 C             69.16122600      12.30797645      23.39837738       0.60809629       1.92489913      -1.46118987      -5.75009777       0.90650082
 C             10.62298179      63.90390259      26.10883654      -3.88639678      10.38295331       1.73798952      -6.80362472       0.91638570
 C             68.37684939      68.17892209      33.50052662      -1.79492382      -0.27648556       0.21616036      -6.80675981       0.89370047
 C              3.72000461      10.92814005      20.33066568       1.15714480       1.97346011      -0.80412634      -6.17034403       0.91407032
 C             67.19733287      21.79787576      28.85114187      -5.88171132       4.43614646      -1.71987416      -5.91024674       0.90445291
 C             64.26741387      63.31985932      24.26432534      -3.41370297       0.05275025       2.50691532      -7.67681511       0.90601742
 C             63.02624832       5.60819921      52.97687431      -3.08110723      -5.12151741      -2.71209274      -5.67630165       0.93803624
 C             61.51910064       0.93039937      39.95150610      -2.79956469       4.97618918      -0.97753348      -5.89379643       0.88784354
 C             60.46971678       3.74667852      32.75434051       0.64322470      -0.58287199      -4.31186885      -6.68094792       0.90840493
 C             57.18538568       7.78675361      39.13276863      -2.49865318       2.25560624      -0.60555030      -6.43033760       0.91517129
 C              6.25455252      12.11831971      47.49546527       6.19599600      -4.41334876      -5.43518577      -6.89248697       0.92995500
 C             62.62354604      69.40185135      43.11407468       2.09033850      -0.62878127       3.22367993      -5.21640875       0.94445168
 C             68.11844627      11.85158943      37.85536243      -0.37214410      -2.31319801       2.26875726      -8.49718821       0.92868308
 C             66.32610633      61.38810875      31.88814350       4.25808717      -2.49694248       4.05490728      -7.42235393       0.89524073
 C             64.23276334      67.63168049      38.92779786      -3.89503747      -0.63778098       3.03024137      -6.35383552       0.92138137
 C             64.87483865      15.78540831      37.12851731       1.80035257      -0.71091110      -2.27417491      -5.79281844       0.91715104
 C             65.70594679      13.53127231      43.93319744       1.73471422      -1.53152790       4.38095406      -6.89453236       0.90286011
 C              0.01712951      67.19230082      55.96973466       0.13984110       4.87789672       0.22408064      -6.81817909       0.92154952
 C             16.32126536       4.64237654      36.57534066      -2.94238733       6.88411617       2.09771561      -7.44394814       0.86402022
 C             11.26294631       0.88086247      44.97684060       2.13500815      -3.76037549       4.11373892      -5.98333111       0.92221264
 C              6.49807176      30.45663861      45.20361707      -0.02849743      -0.52248180       2.08047510      -5.29802576       0.93930580
 C              2.05788354       3.00234472      57.33300566      -2.50242198       0.05233514      -2.15809239      -5.39676149       0.91864666
 C              3.69345970       7.27368731      38.09060686      -0.75812967       2.57850289       2.68450419      -6.47558040       0.92680922
 C             57.83172397      11.02570870      44.49991795       1.46924673       0.02409820      -3.06044625      -8.29986962       0.92749273
 C             69.12241050      66.87407639      45.86837041      10.09136536       1.30219712      -4.33420822      -6.10100541       0.92457729
 C             12.58845403      17.67404657      36.25940729      -1.05662589      -1.15159768      -2.79664756      -6.23712202       0.91941890
 C              4.99203585      13.05207202      66.16235858      -3.43115541       1.25224889      -3.56681921      -6.24611775       0.92986754
 C              5.24066472       7.68485361      44.99915535      -0.94036712       2.78645651       0.85035250      -8.03447209       0.88877822
 C             12.52342694      10.36715986      37.47224421       0.31503236      -1.92002692      -0.66988822      -5.29132353       0.94517072